<?xml version="1.0" encoding="UTF-8"?>

<!-- generated on 2025-12-02 16:08:03 by Eclipse SUMO sumo Version 1.24.0
<sumoConfiguration xmlns:xsi="http://www.w3.org/2001/XMLSchema-instance" xsi:noNamespaceSchemaLocation="http://sumo.dlr.de/xsd/sumoConfiguration.xsd">

    <input>
        <net-file value="C:\Users\Nutzer\Documents\programming scripts\uni\semester3\javp\SumoConfig\uascity\osm.net.xml.gz"/>
        <route-files value="C:\Users\Nutzer\Documents\programming scripts\uni\semester3\javp\SumoConfig\uascity\osm.passenger.trips.xml"/>
        <additional-files value="C:\Users\Nutzer\Documents\programming scripts\uni\semester3\javp\SumoConfig\uascity\osm.poly.xml.gz,C:\Users\Nutzer\Documents\programming scripts\uni\semester3\javp\SumoConfig\uascity\output.add.xml"/>
    </input>

    <output>
        <tripinfo-output value="C:\Users\Nutzer\Documents\programming scripts\uni\semester3\javp\SumoConfig\uascity\tripinfos.xml"/>
        <statistic-output value="C:\Users\Nutzer\Documents\programming scripts\uni\semester3\javp\SumoConfig\uascity\stats.xml"/>
    </output>

    <processing>
        <ignore-route-errors value="true"/>
        <tls.actuated.jam-threshold value="30"/>
    </processing>

    <routing>
        <device.rerouting.adaptation-steps value="18"/>
        <device.rerouting.adaptation-interval value="10"/>
    </routing>

    <report>
        <verbose value="true"/>
        <duration-log.statistics value="true"/>
        <no-step-log value="true"/>
    </report>

    <traci_server>
        <remote-port value="8813"/>
    </traci_server>

    <gui_only>
        <gui-settings-file value="C:\Users\Nutzer\Documents\programming scripts\uni\semester3\javp\SumoConfig\uascity\osm.view.xml"/>
    </gui_only>

</sumoConfiguration>
-->

<tripinfos xmlns:xsi="http://www.w3.org/2001/XMLSchema-instance" xsi:noNamespaceSchemaLocation="http://sumo.dlr.de/xsd/tripinfo_file.xsd">
</tripinfos>
